# Membrane data file

1040 atoms
960 bonds
880 angles

3 atom types
2 bond types
3 angle types

0 96 xlo xhi
0 64 ylo yhi
-0.1 0.1 zlo zhi

Masses

1 15.625
2 1.0
3 1.0

Atoms

1 1 1 16.405 28.75 0
2 1 2 16 29.25 0
3 1 2 16 29.75 0
4 1 2 16 30.25 0
5 1 2 16 30.75 0
6 1 2 16 31.25 0
7 1 2 16 31.75 0
8 1 2 16.81 29.25 0
9 1 2 16.81 29.75 0
10 1 2 16.81 30.25 0
11 1 2 16.81 30.75 0
12 1 2 16.81 31.25 0
13 1 2 16.81 31.75 0
14 2 1 16.405 35.25 0
15 2 2 16 34.75 0
16 2 2 16 34.25 0
17 2 2 16 33.75 0
18 2 2 16 33.25 0
19 2 2 16 32.75 0
20 2 2 16 32.25 0
21 2 2 16.81 34.75 0
22 2 2 16.81 34.25 0
23 2 2 16.81 33.75 0
24 2 2 16.81 33.25 0
25 2 2 16.81 32.75 0
26 2 2 16.81 32.25 0
27 3 1 18.025 28.75 0
28 3 2 17.62 29.25 0
29 3 2 17.62 29.75 0
30 3 2 17.62 30.25 0
31 3 2 17.62 30.75 0
32 3 2 17.62 31.25 0
33 3 2 17.62 31.75 0
34 3 2 18.43 29.25 0
35 3 2 18.43 29.75 0
36 3 2 18.43 30.25 0
37 3 2 18.43 30.75 0
38 3 2 18.43 31.25 0
39 3 2 18.43 31.75 0
40 4 1 18.025 35.25 0
41 4 2 17.62 34.75 0
42 4 2 17.62 34.25 0
43 4 2 17.62 33.75 0
44 4 2 17.62 33.25 0
45 4 2 17.62 32.75 0
46 4 2 17.62 32.25 0
47 4 2 18.43 34.75 0
48 4 2 18.43 34.25 0
49 4 2 18.43 33.75 0
50 4 2 18.43 33.25 0
51 4 2 18.43 32.75 0
52 4 2 18.43 32.25 0
53 5 1 19.646 28.75 0
54 5 2 19.241 29.25 0
55 5 2 19.241 29.75 0
56 5 2 19.241 30.25 0
57 5 2 19.241 30.75 0
58 5 2 19.241 31.25 0
59 5 2 19.241 31.75 0
60 5 2 20.051 29.25 0
61 5 2 20.051 29.75 0
62 5 2 20.051 30.25 0
63 5 2 20.051 30.75 0
64 5 2 20.051 31.25 0
65 5 2 20.051 31.75 0
66 6 1 19.646 35.25 0
67 6 2 19.241 34.75 0
68 6 2 19.241 34.25 0
69 6 2 19.241 33.75 0
70 6 2 19.241 33.25 0
71 6 2 19.241 32.75 0
72 6 2 19.241 32.25 0
73 6 2 20.051 34.75 0
74 6 2 20.051 34.25 0
75 6 2 20.051 33.75 0
76 6 2 20.051 33.25 0
77 6 2 20.051 32.75 0
78 6 2 20.051 32.25 0
79 7 1 21.266 28.75 0
80 7 2 20.861 29.25 0
81 7 2 20.861 29.75 0
82 7 2 20.861 30.25 0
83 7 2 20.861 30.75 0
84 7 2 20.861 31.25 0
85 7 2 20.861 31.75 0
86 7 2 21.671 29.25 0
87 7 2 21.671 29.75 0
88 7 2 21.671 30.25 0
89 7 2 21.671 30.75 0
90 7 2 21.671 31.25 0
91 7 2 21.671 31.75 0
92 8 1 21.266 35.25 0
93 8 2 20.861 34.75 0
94 8 2 20.861 34.25 0
95 8 2 20.861 33.75 0
96 8 2 20.861 33.25 0
97 8 2 20.861 32.75 0
98 8 2 20.861 32.25 0
99 8 2 21.671 34.75 0
100 8 2 21.671 34.25 0
101 8 2 21.671 33.75 0
102 8 2 21.671 33.25 0
103 8 2 21.671 32.75 0
104 8 2 21.671 32.25 0
105 9 1 22.886 28.75 0
106 9 2 22.481 29.25 0
107 9 2 22.481 29.75 0
108 9 2 22.481 30.25 0
109 9 2 22.481 30.75 0
110 9 2 22.481 31.25 0
111 9 2 22.481 31.75 0
112 9 2 23.291 29.25 0
113 9 2 23.291 29.75 0
114 9 2 23.291 30.25 0
115 9 2 23.291 30.75 0
116 9 2 23.291 31.25 0
117 9 2 23.291 31.75 0
118 10 1 22.886 35.25 0
119 10 2 22.481 34.75 0
120 10 2 22.481 34.25 0
121 10 2 22.481 33.75 0
122 10 2 22.481 33.25 0
123 10 2 22.481 32.75 0
124 10 2 22.481 32.25 0
125 10 2 23.291 34.75 0
126 10 2 23.291 34.25 0
127 10 2 23.291 33.75 0
128 10 2 23.291 33.25 0
129 10 2 23.291 32.75 0
130 10 2 23.291 32.25 0
131 11 1 24.506 28.75 0
132 11 2 24.101 29.25 0
133 11 2 24.101 29.75 0
134 11 2 24.101 30.25 0
135 11 2 24.101 30.75 0
136 11 2 24.101 31.25 0
137 11 2 24.101 31.75 0
138 11 2 24.911 29.25 0
139 11 2 24.911 29.75 0
140 11 2 24.911 30.25 0
141 11 2 24.911 30.75 0
142 11 2 24.911 31.25 0
143 11 2 24.911 31.75 0
144 12 1 24.506 35.25 0
145 12 2 24.101 34.75 0
146 12 2 24.101 34.25 0
147 12 2 24.101 33.75 0
148 12 2 24.101 33.25 0
149 12 2 24.101 32.75 0
150 12 2 24.101 32.25 0
151 12 2 24.911 34.75 0
152 12 2 24.911 34.25 0
153 12 2 24.911 33.75 0
154 12 2 24.911 33.25 0
155 12 2 24.911 32.75 0
156 12 2 24.911 32.25 0
157 13 1 26.127 28.75 0
158 13 2 25.722 29.25 0
159 13 2 25.722 29.75 0
160 13 2 25.722 30.25 0
161 13 2 25.722 30.75 0
162 13 2 25.722 31.25 0
163 13 2 25.722 31.75 0
164 13 2 26.532 29.25 0
165 13 2 26.532 29.75 0
166 13 2 26.532 30.25 0
167 13 2 26.532 30.75 0
168 13 2 26.532 31.25 0
169 13 2 26.532 31.75 0
170 14 1 26.127 35.25 0
171 14 2 25.722 34.75 0
172 14 2 25.722 34.25 0
173 14 2 25.722 33.75 0
174 14 2 25.722 33.25 0
175 14 2 25.722 32.75 0
176 14 2 25.722 32.25 0
177 14 2 26.532 34.75 0
178 14 2 26.532 34.25 0
179 14 2 26.532 33.75 0
180 14 2 26.532 33.25 0
181 14 2 26.532 32.75 0
182 14 2 26.532 32.25 0
183 15 1 27.747 28.75 0
184 15 2 27.342 29.25 0
185 15 2 27.342 29.75 0
186 15 2 27.342 30.25 0
187 15 2 27.342 30.75 0
188 15 2 27.342 31.25 0
189 15 2 27.342 31.75 0
190 15 2 28.152 29.25 0
191 15 2 28.152 29.75 0
192 15 2 28.152 30.25 0
193 15 2 28.152 30.75 0
194 15 2 28.152 31.25 0
195 15 2 28.152 31.75 0
196 16 1 27.747 35.25 0
197 16 2 27.342 34.75 0
198 16 2 27.342 34.25 0
199 16 2 27.342 33.75 0
200 16 2 27.342 33.25 0
201 16 2 27.342 32.75 0
202 16 2 27.342 32.25 0
203 16 2 28.152 34.75 0
204 16 2 28.152 34.25 0
205 16 2 28.152 33.75 0
206 16 2 28.152 33.25 0
207 16 2 28.152 32.75 0
208 16 2 28.152 32.25 0
209 17 1 29.367 28.75 0
210 17 2 28.962 29.25 0
211 17 2 28.962 29.75 0
212 17 2 28.962 30.25 0
213 17 2 28.962 30.75 0
214 17 2 28.962 31.25 0
215 17 2 28.962 31.75 0
216 17 2 29.772 29.25 0
217 17 2 29.772 29.75 0
218 17 2 29.772 30.25 0
219 17 2 29.772 30.75 0
220 17 2 29.772 31.25 0
221 17 2 29.772 31.75 0
222 18 1 29.367 35.25 0
223 18 2 28.962 34.75 0
224 18 2 28.962 34.25 0
225 18 2 28.962 33.75 0
226 18 2 28.962 33.25 0
227 18 2 28.962 32.75 0
228 18 2 28.962 32.25 0
229 18 2 29.772 34.75 0
230 18 2 29.772 34.25 0
231 18 2 29.772 33.75 0
232 18 2 29.772 33.25 0
233 18 2 29.772 32.75 0
234 18 2 29.772 32.25 0
235 19 1 30.987 28.75 0
236 19 2 30.582 29.25 0
237 19 2 30.582 29.75 0
238 19 2 30.582 30.25 0
239 19 2 30.582 30.75 0
240 19 2 30.582 31.25 0
241 19 2 30.582 31.75 0
242 19 2 31.392 29.25 0
243 19 2 31.392 29.75 0
244 19 2 31.392 30.25 0
245 19 2 31.392 30.75 0
246 19 2 31.392 31.25 0
247 19 2 31.392 31.75 0
248 20 1 30.987 35.25 0
249 20 2 30.582 34.75 0
250 20 2 30.582 34.25 0
251 20 2 30.582 33.75 0
252 20 2 30.582 33.25 0
253 20 2 30.582 32.75 0
254 20 2 30.582 32.25 0
255 20 2 31.392 34.75 0
256 20 2 31.392 34.25 0
257 20 2 31.392 33.75 0
258 20 2 31.392 33.25 0
259 20 2 31.392 32.75 0
260 20 2 31.392 32.25 0
261 21 1 32.608 28.75 0
262 21 2 32.203 29.25 0
263 21 2 32.203 29.75 0
264 21 2 32.203 30.25 0
265 21 2 32.203 30.75 0
266 21 2 32.203 31.25 0
267 21 2 32.203 31.75 0
268 21 2 33.013 29.25 0
269 21 2 33.013 29.75 0
270 21 2 33.013 30.25 0
271 21 2 33.013 30.75 0
272 21 2 33.013 31.25 0
273 21 2 33.013 31.75 0
274 22 1 32.608 35.25 0
275 22 2 32.203 34.75 0
276 22 2 32.203 34.25 0
277 22 2 32.203 33.75 0
278 22 2 32.203 33.25 0
279 22 2 32.203 32.75 0
280 22 2 32.203 32.25 0
281 22 2 33.013 34.75 0
282 22 2 33.013 34.25 0
283 22 2 33.013 33.75 0
284 22 2 33.013 33.25 0
285 22 2 33.013 32.75 0
286 22 2 33.013 32.25 0
287 23 1 34.228 28.75 0
288 23 2 33.823 29.25 0
289 23 2 33.823 29.75 0
290 23 2 33.823 30.25 0
291 23 2 33.823 30.75 0
292 23 2 33.823 31.25 0
293 23 2 33.823 31.75 0
294 23 2 34.633 29.25 0
295 23 2 34.633 29.75 0
296 23 2 34.633 30.25 0
297 23 2 34.633 30.75 0
298 23 2 34.633 31.25 0
299 23 2 34.633 31.75 0
300 24 1 34.228 35.25 0
301 24 2 33.823 34.75 0
302 24 2 33.823 34.25 0
303 24 2 33.823 33.75 0
304 24 2 33.823 33.25 0
305 24 2 33.823 32.75 0
306 24 2 33.823 32.25 0
307 24 2 34.633 34.75 0
308 24 2 34.633 34.25 0
309 24 2 34.633 33.75 0
310 24 2 34.633 33.25 0
311 24 2 34.633 32.75 0
312 24 2 34.633 32.25 0
313 25 1 35.848 28.75 0
314 25 2 35.443 29.25 0
315 25 2 35.443 29.75 0
316 25 2 35.443 30.25 0
317 25 2 35.443 30.75 0
318 25 2 35.443 31.25 0
319 25 2 35.443 31.75 0
320 25 2 36.253 29.25 0
321 25 2 36.253 29.75 0
322 25 2 36.253 30.25 0
323 25 2 36.253 30.75 0
324 25 2 36.253 31.25 0
325 25 2 36.253 31.75 0
326 26 1 35.848 35.25 0
327 26 2 35.443 34.75 0
328 26 2 35.443 34.25 0
329 26 2 35.443 33.75 0
330 26 2 35.443 33.25 0
331 26 2 35.443 32.75 0
332 26 2 35.443 32.25 0
333 26 2 36.253 34.75 0
334 26 2 36.253 34.25 0
335 26 2 36.253 33.75 0
336 26 2 36.253 33.25 0
337 26 2 36.253 32.75 0
338 26 2 36.253 32.25 0
339 27 1 37.468 28.75 0
340 27 2 37.063 29.25 0
341 27 2 37.063 29.75 0
342 27 2 37.063 30.25 0
343 27 2 37.063 30.75 0
344 27 2 37.063 31.25 0
345 27 2 37.063 31.75 0
346 27 2 37.873 29.25 0
347 27 2 37.873 29.75 0
348 27 2 37.873 30.25 0
349 27 2 37.873 30.75 0
350 27 2 37.873 31.25 0
351 27 2 37.873 31.75 0
352 28 1 37.468 35.25 0
353 28 2 37.063 34.75 0
354 28 2 37.063 34.25 0
355 28 2 37.063 33.75 0
356 28 2 37.063 33.25 0
357 28 2 37.063 32.75 0
358 28 2 37.063 32.25 0
359 28 2 37.873 34.75 0
360 28 2 37.873 34.25 0
361 28 2 37.873 33.75 0
362 28 2 37.873 33.25 0
363 28 2 37.873 32.75 0
364 28 2 37.873 32.25 0
365 29 1 39.089 28.75 0
366 29 2 38.684 29.25 0
367 29 2 38.684 29.75 0
368 29 2 38.684 30.25 0
369 29 2 38.684 30.75 0
370 29 2 38.684 31.25 0
371 29 2 38.684 31.75 0
372 29 2 39.494 29.25 0
373 29 2 39.494 29.75 0
374 29 2 39.494 30.25 0
375 29 2 39.494 30.75 0
376 29 2 39.494 31.25 0
377 29 2 39.494 31.75 0
378 30 1 39.089 35.25 0
379 30 2 38.684 34.75 0
380 30 2 38.684 34.25 0
381 30 2 38.684 33.75 0
382 30 2 38.684 33.25 0
383 30 2 38.684 32.75 0
384 30 2 38.684 32.25 0
385 30 2 39.494 34.75 0
386 30 2 39.494 34.25 0
387 30 2 39.494 33.75 0
388 30 2 39.494 33.25 0
389 30 2 39.494 32.75 0
390 30 2 39.494 32.25 0
391 31 1 40.709 28.75 0
392 31 2 40.304 29.25 0
393 31 2 40.304 29.75 0
394 31 2 40.304 30.25 0
395 31 2 40.304 30.75 0
396 31 2 40.304 31.25 0
397 31 2 40.304 31.75 0
398 31 2 41.114 29.25 0
399 31 2 41.114 29.75 0
400 31 2 41.114 30.25 0
401 31 2 41.114 30.75 0
402 31 2 41.114 31.25 0
403 31 2 41.114 31.75 0
404 32 1 40.709 35.25 0
405 32 2 40.304 34.75 0
406 32 2 40.304 34.25 0
407 32 2 40.304 33.75 0
408 32 2 40.304 33.25 0
409 32 2 40.304 32.75 0
410 32 2 40.304 32.25 0
411 32 2 41.114 34.75 0
412 32 2 41.114 34.25 0
413 32 2 41.114 33.75 0
414 32 2 41.114 33.25 0
415 32 2 41.114 32.75 0
416 32 2 41.114 32.25 0
417 33 1 42.329 28.75 0
418 33 2 41.924 29.25 0
419 33 2 41.924 29.75 0
420 33 2 41.924 30.25 0
421 33 2 41.924 30.75 0
422 33 2 41.924 31.25 0
423 33 2 41.924 31.75 0
424 33 2 42.734 29.25 0
425 33 2 42.734 29.75 0
426 33 2 42.734 30.25 0
427 33 2 42.734 30.75 0
428 33 2 42.734 31.25 0
429 33 2 42.734 31.75 0
430 34 1 42.329 35.25 0
431 34 2 41.924 34.75 0
432 34 2 41.924 34.25 0
433 34 2 41.924 33.75 0
434 34 2 41.924 33.25 0
435 34 2 41.924 32.75 0
436 34 2 41.924 32.25 0
437 34 2 42.734 34.75 0
438 34 2 42.734 34.25 0
439 34 2 42.734 33.75 0
440 34 2 42.734 33.25 0
441 34 2 42.734 32.75 0
442 34 2 42.734 32.25 0
443 35 1 43.949 28.75 0
444 35 2 43.544 29.25 0
445 35 2 43.544 29.75 0
446 35 2 43.544 30.25 0
447 35 2 43.544 30.75 0
448 35 2 43.544 31.25 0
449 35 2 43.544 31.75 0
450 35 2 44.354 29.25 0
451 35 2 44.354 29.75 0
452 35 2 44.354 30.25 0
453 35 2 44.354 30.75 0
454 35 2 44.354 31.25 0
455 35 2 44.354 31.75 0
456 36 1 43.949 35.25 0
457 36 2 43.544 34.75 0
458 36 2 43.544 34.25 0
459 36 2 43.544 33.75 0
460 36 2 43.544 33.25 0
461 36 2 43.544 32.75 0
462 36 2 43.544 32.25 0
463 36 2 44.354 34.75 0
464 36 2 44.354 34.25 0
465 36 2 44.354 33.75 0
466 36 2 44.354 33.25 0
467 36 2 44.354 32.75 0
468 36 2 44.354 32.25 0
469 37 1 45.57 28.75 0
470 37 2 45.165 29.25 0
471 37 2 45.165 29.75 0
472 37 2 45.165 30.25 0
473 37 2 45.165 30.75 0
474 37 2 45.165 31.25 0
475 37 2 45.165 31.75 0
476 37 2 45.975 29.25 0
477 37 2 45.975 29.75 0
478 37 2 45.975 30.25 0
479 37 2 45.975 30.75 0
480 37 2 45.975 31.25 0
481 37 2 45.975 31.75 0
482 38 1 45.57 35.25 0
483 38 2 45.165 34.75 0
484 38 2 45.165 34.25 0
485 38 2 45.165 33.75 0
486 38 2 45.165 33.25 0
487 38 2 45.165 32.75 0
488 38 2 45.165 32.25 0
489 38 2 45.975 34.75 0
490 38 2 45.975 34.25 0
491 38 2 45.975 33.75 0
492 38 2 45.975 33.25 0
493 38 2 45.975 32.75 0
494 38 2 45.975 32.25 0
495 39 1 47.19 28.75 0
496 39 2 46.785 29.25 0
497 39 2 46.785 29.75 0
498 39 2 46.785 30.25 0
499 39 2 46.785 30.75 0
500 39 2 46.785 31.25 0
501 39 2 46.785 31.75 0
502 39 2 47.595 29.25 0
503 39 2 47.595 29.75 0
504 39 2 47.595 30.25 0
505 39 2 47.595 30.75 0
506 39 2 47.595 31.25 0
507 39 2 47.595 31.75 0
508 40 1 47.19 35.25 0
509 40 2 46.785 34.75 0
510 40 2 46.785 34.25 0
511 40 2 46.785 33.75 0
512 40 2 46.785 33.25 0
513 40 2 46.785 32.75 0
514 40 2 46.785 32.25 0
515 40 2 47.595 34.75 0
516 40 2 47.595 34.25 0
517 40 2 47.595 33.75 0
518 40 2 47.595 33.25 0
519 40 2 47.595 32.75 0
520 40 2 47.595 32.25 0
521 41 1 48.81 28.75 0
522 41 2 48.405 29.25 0
523 41 2 48.405 29.75 0
524 41 2 48.405 30.25 0
525 41 2 48.405 30.75 0
526 41 2 48.405 31.25 0
527 41 2 48.405 31.75 0
528 41 2 49.215 29.25 0
529 41 2 49.215 29.75 0
530 41 2 49.215 30.25 0
531 41 2 49.215 30.75 0
532 41 2 49.215 31.25 0
533 41 2 49.215 31.75 0
534 42 1 48.81 35.25 0
535 42 2 48.405 34.75 0
536 42 2 48.405 34.25 0
537 42 2 48.405 33.75 0
538 42 2 48.405 33.25 0
539 42 2 48.405 32.75 0
540 42 2 48.405 32.25 0
541 42 2 49.215 34.75 0
542 42 2 49.215 34.25 0
543 42 2 49.215 33.75 0
544 42 2 49.215 33.25 0
545 42 2 49.215 32.75 0
546 42 2 49.215 32.25 0
547 43 1 50.43 28.75 0
548 43 2 50.025 29.25 0
549 43 2 50.025 29.75 0
550 43 2 50.025 30.25 0
551 43 2 50.025 30.75 0
552 43 2 50.025 31.25 0
553 43 2 50.025 31.75 0
554 43 2 50.835 29.25 0
555 43 2 50.835 29.75 0
556 43 2 50.835 30.25 0
557 43 2 50.835 30.75 0
558 43 2 50.835 31.25 0
559 43 2 50.835 31.75 0
560 44 1 50.43 35.25 0
561 44 2 50.025 34.75 0
562 44 2 50.025 34.25 0
563 44 2 50.025 33.75 0
564 44 2 50.025 33.25 0
565 44 2 50.025 32.75 0
566 44 2 50.025 32.25 0
567 44 2 50.835 34.75 0
568 44 2 50.835 34.25 0
569 44 2 50.835 33.75 0
570 44 2 50.835 33.25 0
571 44 2 50.835 32.75 0
572 44 2 50.835 32.25 0
573 45 1 52.051 28.75 0
574 45 2 51.646 29.25 0
575 45 2 51.646 29.75 0
576 45 2 51.646 30.25 0
577 45 2 51.646 30.75 0
578 45 2 51.646 31.25 0
579 45 2 51.646 31.75 0
580 45 2 52.456 29.25 0
581 45 2 52.456 29.75 0
582 45 2 52.456 30.25 0
583 45 2 52.456 30.75 0
584 45 2 52.456 31.25 0
585 45 2 52.456 31.75 0
586 46 1 52.051 35.25 0
587 46 2 51.646 34.75 0
588 46 2 51.646 34.25 0
589 46 2 51.646 33.75 0
590 46 2 51.646 33.25 0
591 46 2 51.646 32.75 0
592 46 2 51.646 32.25 0
593 46 2 52.456 34.75 0
594 46 2 52.456 34.25 0
595 46 2 52.456 33.75 0
596 46 2 52.456 33.25 0
597 46 2 52.456 32.75 0
598 46 2 52.456 32.25 0
599 47 1 53.671 28.75 0
600 47 2 53.266 29.25 0
601 47 2 53.266 29.75 0
602 47 2 53.266 30.25 0
603 47 2 53.266 30.75 0
604 47 2 53.266 31.25 0
605 47 2 53.266 31.75 0
606 47 2 54.076 29.25 0
607 47 2 54.076 29.75 0
608 47 2 54.076 30.25 0
609 47 2 54.076 30.75 0
610 47 2 54.076 31.25 0
611 47 2 54.076 31.75 0
612 48 1 53.671 35.25 0
613 48 2 53.266 34.75 0
614 48 2 53.266 34.25 0
615 48 2 53.266 33.75 0
616 48 2 53.266 33.25 0
617 48 2 53.266 32.75 0
618 48 2 53.266 32.25 0
619 48 2 54.076 34.75 0
620 48 2 54.076 34.25 0
621 48 2 54.076 33.75 0
622 48 2 54.076 33.25 0
623 48 2 54.076 32.75 0
624 48 2 54.076 32.25 0
625 49 1 55.291 28.75 0
626 49 2 54.886 29.25 0
627 49 2 54.886 29.75 0
628 49 2 54.886 30.25 0
629 49 2 54.886 30.75 0
630 49 2 54.886 31.25 0
631 49 2 54.886 31.75 0
632 49 2 55.696 29.25 0
633 49 2 55.696 29.75 0
634 49 2 55.696 30.25 0
635 49 2 55.696 30.75 0
636 49 2 55.696 31.25 0
637 49 2 55.696 31.75 0
638 50 1 55.291 35.25 0
639 50 2 54.886 34.75 0
640 50 2 54.886 34.25 0
641 50 2 54.886 33.75 0
642 50 2 54.886 33.25 0
643 50 2 54.886 32.75 0
644 50 2 54.886 32.25 0
645 50 2 55.696 34.75 0
646 50 2 55.696 34.25 0
647 50 2 55.696 33.75 0
648 50 2 55.696 33.25 0
649 50 2 55.696 32.75 0
650 50 2 55.696 32.25 0
651 51 1 56.911 28.75 0
652 51 2 56.506 29.25 0
653 51 2 56.506 29.75 0
654 51 2 56.506 30.25 0
655 51 2 56.506 30.75 0
656 51 2 56.506 31.25 0
657 51 2 56.506 31.75 0
658 51 2 57.316 29.25 0
659 51 2 57.316 29.75 0
660 51 2 57.316 30.25 0
661 51 2 57.316 30.75 0
662 51 2 57.316 31.25 0
663 51 2 57.316 31.75 0
664 52 1 56.911 35.25 0
665 52 2 56.506 34.75 0
666 52 2 56.506 34.25 0
667 52 2 56.506 33.75 0
668 52 2 56.506 33.25 0
669 52 2 56.506 32.75 0
670 52 2 56.506 32.25 0
671 52 2 57.316 34.75 0
672 52 2 57.316 34.25 0
673 52 2 57.316 33.75 0
674 52 2 57.316 33.25 0
675 52 2 57.316 32.75 0
676 52 2 57.316 32.25 0
677 53 1 58.532 28.75 0
678 53 2 58.127 29.25 0
679 53 2 58.127 29.75 0
680 53 2 58.127 30.25 0
681 53 2 58.127 30.75 0
682 53 2 58.127 31.25 0
683 53 2 58.127 31.75 0
684 53 2 58.937 29.25 0
685 53 2 58.937 29.75 0
686 53 2 58.937 30.25 0
687 53 2 58.937 30.75 0
688 53 2 58.937 31.25 0
689 53 2 58.937 31.75 0
690 54 1 58.532 35.25 0
691 54 2 58.127 34.75 0
692 54 2 58.127 34.25 0
693 54 2 58.127 33.75 0
694 54 2 58.127 33.25 0
695 54 2 58.127 32.75 0
696 54 2 58.127 32.25 0
697 54 2 58.937 34.75 0
698 54 2 58.937 34.25 0
699 54 2 58.937 33.75 0
700 54 2 58.937 33.25 0
701 54 2 58.937 32.75 0
702 54 2 58.937 32.25 0
703 55 1 60.152 28.75 0
704 55 2 59.747 29.25 0
705 55 2 59.747 29.75 0
706 55 2 59.747 30.25 0
707 55 2 59.747 30.75 0
708 55 2 59.747 31.25 0
709 55 2 59.747 31.75 0
710 55 2 60.557 29.25 0
711 55 2 60.557 29.75 0
712 55 2 60.557 30.25 0
713 55 2 60.557 30.75 0
714 55 2 60.557 31.25 0
715 55 2 60.557 31.75 0
716 56 1 60.152 35.25 0
717 56 2 59.747 34.75 0
718 56 2 59.747 34.25 0
719 56 2 59.747 33.75 0
720 56 2 59.747 33.25 0
721 56 2 59.747 32.75 0
722 56 2 59.747 32.25 0
723 56 2 60.557 34.75 0
724 56 2 60.557 34.25 0
725 56 2 60.557 33.75 0
726 56 2 60.557 33.25 0
727 56 2 60.557 32.75 0
728 56 2 60.557 32.25 0
729 57 1 61.772 28.75 0
730 57 2 61.367 29.25 0
731 57 2 61.367 29.75 0
732 57 2 61.367 30.25 0
733 57 2 61.367 30.75 0
734 57 2 61.367 31.25 0
735 57 2 61.367 31.75 0
736 57 2 62.177 29.25 0
737 57 2 62.177 29.75 0
738 57 2 62.177 30.25 0
739 57 2 62.177 30.75 0
740 57 2 62.177 31.25 0
741 57 2 62.177 31.75 0
742 58 1 61.772 35.25 0
743 58 2 61.367 34.75 0
744 58 2 61.367 34.25 0
745 58 2 61.367 33.75 0
746 58 2 61.367 33.25 0
747 58 2 61.367 32.75 0
748 58 2 61.367 32.25 0
749 58 2 62.177 34.75 0
750 58 2 62.177 34.25 0
751 58 2 62.177 33.75 0
752 58 2 62.177 33.25 0
753 58 2 62.177 32.75 0
754 58 2 62.177 32.25 0
755 59 1 63.392 28.75 0
756 59 2 62.987 29.25 0
757 59 2 62.987 29.75 0
758 59 2 62.987 30.25 0
759 59 2 62.987 30.75 0
760 59 2 62.987 31.25 0
761 59 2 62.987 31.75 0
762 59 2 63.797 29.25 0
763 59 2 63.797 29.75 0
764 59 2 63.797 30.25 0
765 59 2 63.797 30.75 0
766 59 2 63.797 31.25 0
767 59 2 63.797 31.75 0
768 60 1 63.392 35.25 0
769 60 2 62.987 34.75 0
770 60 2 62.987 34.25 0
771 60 2 62.987 33.75 0
772 60 2 62.987 33.25 0
773 60 2 62.987 32.75 0
774 60 2 62.987 32.25 0
775 60 2 63.797 34.75 0
776 60 2 63.797 34.25 0
777 60 2 63.797 33.75 0
778 60 2 63.797 33.25 0
779 60 2 63.797 32.75 0
780 60 2 63.797 32.25 0
781 61 1 65.013 28.75 0
782 61 2 64.608 29.25 0
783 61 2 64.608 29.75 0
784 61 2 64.608 30.25 0
785 61 2 64.608 30.75 0
786 61 2 64.608 31.25 0
787 61 2 64.608 31.75 0
788 61 2 65.418 29.25 0
789 61 2 65.418 29.75 0
790 61 2 65.418 30.25 0
791 61 2 65.418 30.75 0
792 61 2 65.418 31.25 0
793 61 2 65.418 31.75 0
794 62 1 65.013 35.25 0
795 62 2 64.608 34.75 0
796 62 2 64.608 34.25 0
797 62 2 64.608 33.75 0
798 62 2 64.608 33.25 0
799 62 2 64.608 32.75 0
800 62 2 64.608 32.25 0
801 62 2 65.418 34.75 0
802 62 2 65.418 34.25 0
803 62 2 65.418 33.75 0
804 62 2 65.418 33.25 0
805 62 2 65.418 32.75 0
806 62 2 65.418 32.25 0
807 63 1 66.633 28.75 0
808 63 2 66.228 29.25 0
809 63 2 66.228 29.75 0
810 63 2 66.228 30.25 0
811 63 2 66.228 30.75 0
812 63 2 66.228 31.25 0
813 63 2 66.228 31.75 0
814 63 2 67.038 29.25 0
815 63 2 67.038 29.75 0
816 63 2 67.038 30.25 0
817 63 2 67.038 30.75 0
818 63 2 67.038 31.25 0
819 63 2 67.038 31.75 0
820 64 1 66.633 35.25 0
821 64 2 66.228 34.75 0
822 64 2 66.228 34.25 0
823 64 2 66.228 33.75 0
824 64 2 66.228 33.25 0
825 64 2 66.228 32.75 0
826 64 2 66.228 32.25 0
827 64 2 67.038 34.75 0
828 64 2 67.038 34.25 0
829 64 2 67.038 33.75 0
830 64 2 67.038 33.25 0
831 64 2 67.038 32.75 0
832 64 2 67.038 32.25 0
833 65 1 68.253 28.75 0
834 65 2 67.848 29.25 0
835 65 2 67.848 29.75 0
836 65 2 67.848 30.25 0
837 65 2 67.848 30.75 0
838 65 2 67.848 31.25 0
839 65 2 67.848 31.75 0
840 65 2 68.658 29.25 0
841 65 2 68.658 29.75 0
842 65 2 68.658 30.25 0
843 65 2 68.658 30.75 0
844 65 2 68.658 31.25 0
845 65 2 68.658 31.75 0
846 66 1 68.253 35.25 0
847 66 2 67.848 34.75 0
848 66 2 67.848 34.25 0
849 66 2 67.848 33.75 0
850 66 2 67.848 33.25 0
851 66 2 67.848 32.75 0
852 66 2 67.848 32.25 0
853 66 2 68.658 34.75 0
854 66 2 68.658 34.25 0
855 66 2 68.658 33.75 0
856 66 2 68.658 33.25 0
857 66 2 68.658 32.75 0
858 66 2 68.658 32.25 0
859 67 1 69.873 28.75 0
860 67 2 69.468 29.25 0
861 67 2 69.468 29.75 0
862 67 2 69.468 30.25 0
863 67 2 69.468 30.75 0
864 67 2 69.468 31.25 0
865 67 2 69.468 31.75 0
866 67 2 70.278 29.25 0
867 67 2 70.278 29.75 0
868 67 2 70.278 30.25 0
869 67 2 70.278 30.75 0
870 67 2 70.278 31.25 0
871 67 2 70.278 31.75 0
872 68 1 69.873 35.25 0
873 68 2 69.468 34.75 0
874 68 2 69.468 34.25 0
875 68 2 69.468 33.75 0
876 68 2 69.468 33.25 0
877 68 2 69.468 32.75 0
878 68 2 69.468 32.25 0
879 68 2 70.278 34.75 0
880 68 2 70.278 34.25 0
881 68 2 70.278 33.75 0
882 68 2 70.278 33.25 0
883 68 2 70.278 32.75 0
884 68 2 70.278 32.25 0
885 69 1 71.494 28.75 0
886 69 2 71.089 29.25 0
887 69 2 71.089 29.75 0
888 69 2 71.089 30.25 0
889 69 2 71.089 30.75 0
890 69 2 71.089 31.25 0
891 69 2 71.089 31.75 0
892 69 2 71.899 29.25 0
893 69 2 71.899 29.75 0
894 69 2 71.899 30.25 0
895 69 2 71.899 30.75 0
896 69 2 71.899 31.25 0
897 69 2 71.899 31.75 0
898 70 1 71.494 35.25 0
899 70 2 71.089 34.75 0
900 70 2 71.089 34.25 0
901 70 2 71.089 33.75 0
902 70 2 71.089 33.25 0
903 70 2 71.089 32.75 0
904 70 2 71.089 32.25 0
905 70 2 71.899 34.75 0
906 70 2 71.899 34.25 0
907 70 2 71.899 33.75 0
908 70 2 71.899 33.25 0
909 70 2 71.899 32.75 0
910 70 2 71.899 32.25 0
911 71 1 73.114 28.75 0
912 71 2 72.709 29.25 0
913 71 2 72.709 29.75 0
914 71 2 72.709 30.25 0
915 71 2 72.709 30.75 0
916 71 2 72.709 31.25 0
917 71 2 72.709 31.75 0
918 71 2 73.519 29.25 0
919 71 2 73.519 29.75 0
920 71 2 73.519 30.25 0
921 71 2 73.519 30.75 0
922 71 2 73.519 31.25 0
923 71 2 73.519 31.75 0
924 72 1 73.114 35.25 0
925 72 2 72.709 34.75 0
926 72 2 72.709 34.25 0
927 72 2 72.709 33.75 0
928 72 2 72.709 33.25 0
929 72 2 72.709 32.75 0
930 72 2 72.709 32.25 0
931 72 2 73.519 34.75 0
932 72 2 73.519 34.25 0
933 72 2 73.519 33.75 0
934 72 2 73.519 33.25 0
935 72 2 73.519 32.75 0
936 72 2 73.519 32.25 0
937 73 1 74.734 28.75 0
938 73 2 74.329 29.25 0
939 73 2 74.329 29.75 0
940 73 2 74.329 30.25 0
941 73 2 74.329 30.75 0
942 73 2 74.329 31.25 0
943 73 2 74.329 31.75 0
944 73 2 75.139 29.25 0
945 73 2 75.139 29.75 0
946 73 2 75.139 30.25 0
947 73 2 75.139 30.75 0
948 73 2 75.139 31.25 0
949 73 2 75.139 31.75 0
950 74 1 74.734 35.25 0
951 74 2 74.329 34.75 0
952 74 2 74.329 34.25 0
953 74 2 74.329 33.75 0
954 74 2 74.329 33.25 0
955 74 2 74.329 32.75 0
956 74 2 74.329 32.25 0
957 74 2 75.139 34.75 0
958 74 2 75.139 34.25 0
959 74 2 75.139 33.75 0
960 74 2 75.139 33.25 0
961 74 2 75.139 32.75 0
962 74 2 75.139 32.25 0
963 75 1 76.354 28.75 0
964 75 2 75.949 29.25 0
965 75 2 75.949 29.75 0
966 75 2 75.949 30.25 0
967 75 2 75.949 30.75 0
968 75 2 75.949 31.25 0
969 75 2 75.949 31.75 0
970 75 2 76.759 29.25 0
971 75 2 76.759 29.75 0
972 75 2 76.759 30.25 0
973 75 2 76.759 30.75 0
974 75 2 76.759 31.25 0
975 75 2 76.759 31.75 0
976 76 1 76.354 35.25 0
977 76 2 75.949 34.75 0
978 76 2 75.949 34.25 0
979 76 2 75.949 33.75 0
980 76 2 75.949 33.25 0
981 76 2 75.949 32.75 0
982 76 2 75.949 32.25 0
983 76 2 76.759 34.75 0
984 76 2 76.759 34.25 0
985 76 2 76.759 33.75 0
986 76 2 76.759 33.25 0
987 76 2 76.759 32.75 0
988 76 2 76.759 32.25 0
989 77 1 77.975 28.75 0
990 77 2 77.57 29.25 0
991 77 2 77.57 29.75 0
992 77 2 77.57 30.25 0
993 77 2 77.57 30.75 0
994 77 2 77.57 31.25 0
995 77 2 77.57 31.75 0
996 77 2 78.38 29.25 0
997 77 2 78.38 29.75 0
998 77 2 78.38 30.25 0
999 77 2 78.38 30.75 0
1000 77 2 78.38 31.25 0
1001 77 2 78.38 31.75 0
1002 78 1 77.975 35.25 0
1003 78 2 77.57 34.75 0
1004 78 2 77.57 34.25 0
1005 78 2 77.57 33.75 0
1006 78 2 77.57 33.25 0
1007 78 2 77.57 32.75 0
1008 78 2 77.57 32.25 0
1009 78 2 78.38 34.75 0
1010 78 2 78.38 34.25 0
1011 78 2 78.38 33.75 0
1012 78 2 78.38 33.25 0
1013 78 2 78.38 32.75 0
1014 78 2 78.38 32.25 0
1015 79 1 79.595 28.75 0
1016 79 2 79.19 29.25 0
1017 79 2 79.19 29.75 0
1018 79 2 79.19 30.25 0
1019 79 2 79.19 30.75 0
1020 79 2 79.19 31.25 0
1021 79 2 79.19 31.75 0
1022 79 2 80 29.25 0
1023 79 2 80 29.75 0
1024 79 2 80 30.25 0
1025 79 2 80 30.75 0
1026 79 2 80 31.25 0
1027 79 2 80 31.75 0
1028 80 1 79.595 35.25 0
1029 80 2 79.19 34.75 0
1030 80 2 79.19 34.25 0
1031 80 2 79.19 33.75 0
1032 80 2 79.19 33.25 0
1033 80 2 79.19 32.75 0
1034 80 2 79.19 32.25 0
1035 80 2 80 34.75 0
1036 80 2 80 34.25 0
1037 80 2 80 33.75 0
1038 80 2 80 33.25 0
1039 80 2 80 32.75 0
1040 80 2 80 32.25 0

Bonds

1 1 1 2
2 1 2 3
3 1 3 4
4 1 4 5
5 1 5 6
6 1 6 7
7 1 1 8
8 1 8 9
9 1 9 10
10 1 10 11
11 1 11 12
12 1 12 13
13 1 14 15
14 1 15 16
15 1 16 17
16 1 17 18
17 1 18 19
18 1 19 20
19 1 14 21
20 1 21 22
21 1 22 23
22 1 23 24
23 1 24 25
24 1 25 26
25 1 27 28
26 1 28 29
27 1 29 30
28 1 30 31
29 1 31 32
30 1 32 33
31 1 27 34
32 1 34 35
33 1 35 36
34 1 36 37
35 1 37 38
36 1 38 39
37 1 40 41
38 1 41 42
39 1 42 43
40 1 43 44
41 1 44 45
42 1 45 46
43 1 40 47
44 1 47 48
45 1 48 49
46 1 49 50
47 1 50 51
48 1 51 52
49 1 53 54
50 1 54 55
51 1 55 56
52 1 56 57
53 1 57 58
54 1 58 59
55 1 53 60
56 1 60 61
57 1 61 62
58 1 62 63
59 1 63 64
60 1 64 65
61 1 66 67
62 1 67 68
63 1 68 69
64 1 69 70
65 1 70 71
66 1 71 72
67 1 66 73
68 1 73 74
69 1 74 75
70 1 75 76
71 1 76 77
72 1 77 78
73 1 79 80
74 1 80 81
75 1 81 82
76 1 82 83
77 1 83 84
78 1 84 85
79 1 79 86
80 1 86 87
81 1 87 88
82 1 88 89
83 1 89 90
84 1 90 91
85 1 92 93
86 1 93 94
87 1 94 95
88 1 95 96
89 1 96 97
90 1 97 98
91 1 92 99
92 1 99 100
93 1 100 101
94 1 101 102
95 1 102 103
96 1 103 104
97 1 105 106
98 1 106 107
99 1 107 108
100 1 108 109
101 1 109 110
102 1 110 111
103 1 105 112
104 1 112 113
105 1 113 114
106 1 114 115
107 1 115 116
108 1 116 117
109 1 118 119
110 1 119 120
111 1 120 121
112 1 121 122
113 1 122 123
114 1 123 124
115 1 118 125
116 1 125 126
117 1 126 127
118 1 127 128
119 1 128 129
120 1 129 130
121 1 131 132
122 1 132 133
123 1 133 134
124 1 134 135
125 1 135 136
126 1 136 137
127 1 131 138
128 1 138 139
129 1 139 140
130 1 140 141
131 1 141 142
132 1 142 143
133 1 144 145
134 1 145 146
135 1 146 147
136 1 147 148
137 1 148 149
138 1 149 150
139 1 144 151
140 1 151 152
141 1 152 153
142 1 153 154
143 1 154 155
144 1 155 156
145 1 157 158
146 1 158 159
147 1 159 160
148 1 160 161
149 1 161 162
150 1 162 163
151 1 157 164
152 1 164 165
153 1 165 166
154 1 166 167
155 1 167 168
156 1 168 169
157 1 170 171
158 1 171 172
159 1 172 173
160 1 173 174
161 1 174 175
162 1 175 176
163 1 170 177
164 1 177 178
165 1 178 179
166 1 179 180
167 1 180 181
168 1 181 182
169 1 183 184
170 1 184 185
171 1 185 186
172 1 186 187
173 1 187 188
174 1 188 189
175 1 183 190
176 1 190 191
177 1 191 192
178 1 192 193
179 1 193 194
180 1 194 195
181 1 196 197
182 1 197 198
183 1 198 199
184 1 199 200
185 1 200 201
186 1 201 202
187 1 196 203
188 1 203 204
189 1 204 205
190 1 205 206
191 1 206 207
192 1 207 208
193 1 209 210
194 1 210 211
195 1 211 212
196 1 212 213
197 1 213 214
198 1 214 215
199 1 209 216
200 1 216 217
201 1 217 218
202 1 218 219
203 1 219 220
204 1 220 221
205 1 222 223
206 1 223 224
207 1 224 225
208 1 225 226
209 1 226 227
210 1 227 228
211 1 222 229
212 1 229 230
213 1 230 231
214 1 231 232
215 1 232 233
216 1 233 234
217 1 235 236
218 1 236 237
219 1 237 238
220 1 238 239
221 1 239 240
222 1 240 241
223 1 235 242
224 1 242 243
225 1 243 244
226 1 244 245
227 1 245 246
228 1 246 247
229 1 248 249
230 1 249 250
231 1 250 251
232 1 251 252
233 1 252 253
234 1 253 254
235 1 248 255
236 1 255 256
237 1 256 257
238 1 257 258
239 1 258 259
240 1 259 260
241 1 261 262
242 1 262 263
243 1 263 264
244 1 264 265
245 1 265 266
246 1 266 267
247 1 261 268
248 1 268 269
249 1 269 270
250 1 270 271
251 1 271 272
252 1 272 273
253 1 274 275
254 1 275 276
255 1 276 277
256 1 277 278
257 1 278 279
258 1 279 280
259 1 274 281
260 1 281 282
261 1 282 283
262 1 283 284
263 1 284 285
264 1 285 286
265 1 287 288
266 1 288 289
267 1 289 290
268 1 290 291
269 1 291 292
270 1 292 293
271 1 287 294
272 1 294 295
273 1 295 296
274 1 296 297
275 1 297 298
276 1 298 299
277 1 300 301
278 1 301 302
279 1 302 303
280 1 303 304
281 1 304 305
282 1 305 306
283 1 300 307
284 1 307 308
285 1 308 309
286 1 309 310
287 1 310 311
288 1 311 312
289 1 313 314
290 1 314 315
291 1 315 316
292 1 316 317
293 1 317 318
294 1 318 319
295 1 313 320
296 1 320 321
297 1 321 322